<?xml version="1.0" encoding="UTF-8"?>

<!-- generated on 2024-06-20 23:39:04 by Eclipse SUMO sumo Version 1.20.0
<configuration xmlns:xsi="http://www.w3.org/2001/XMLSchema-instance" xsi:noNamespaceSchemaLocation="http://sumo.dlr.de/xsd/sumoConfiguration.xsd">

    <input>
        <net-file value="pedestrian_crossing_crossings.net.xml"/>
        <route-files value="pedestrian_crossing.rou.xml"/>
    </input>

    <output>
        <tripinfo-output value="tripinfos.out.xml"/>
        <personinfo-output value="personinfos.out.xml"/>
    </output>

</configuration>
-->

<tripinfos xmlns:xsi="http://www.w3.org/2001/XMLSchema-instance" xsi:noNamespaceSchemaLocation="http://sumo.dlr.de/xsd/tripinfo_file.xsd">
    <tripinfo id="0.0" depart="2.00" departLane="510_0" departPos="5.10" departSpeed="13.85" departDelay="0.00" arrival="116.00" arrivalLane="4950_1" arrivalPos="7.95" arrivalSpeed="12.65" duration="114.00" routeLength="1494.89" waitingTime="0.00" waitingCount="0" stopTime="0.00" timeLoss="5.32" rerouteNo="0" devices="tripinfo_0.0" vType="DEFAULT_VEHTYPE" speedFactor="1.00" vaporized=""/>
    <tripinfo id="0.1" depart="3.00" departLane="510_0" departPos="5.10" departSpeed="10.46" departDelay="0.00" arrival="118.00" arrivalLane="4950_1" arrivalPos="7.95" arrivalSpeed="13.66" duration="115.00" routeLength="1494.89" waitingTime="0.00" waitingCount="0" stopTime="0.00" timeLoss="6.29" rerouteNo="0" devices="tripinfo_0.1" vType="DEFAULT_VEHTYPE" speedFactor="0.99" vaporized=""/>
    <tripinfo id="0.2" depart="5.00" departLane="510_0" departPos="5.10" departSpeed="12.49" departDelay="0.00" arrival="130.00" arrivalLane="4950_1" arrivalPos="7.95" arrivalSpeed="11.81" duration="125.00" routeLength="1494.89" waitingTime="0.00" waitingCount="0" stopTime="0.00" timeLoss="6.99" rerouteNo="0" devices="tripinfo_0.2" vType="DEFAULT_VEHTYPE" speedFactor="0.91" vaporized=""/>
    <tripinfo id="0.3" depart="7.00" departLane="510_0" departPos="5.10" departSpeed="11.66" departDelay="0.00" arrival="132.00" arrivalLane="4950_1" arrivalPos="7.95" arrivalSpeed="13.32" duration="125.00" routeLength="1494.89" waitingTime="0.00" waitingCount="0" stopTime="0.00" timeLoss="16.81" rerouteNo="0" devices="tripinfo_0.3" vType="DEFAULT_VEHTYPE" speedFactor="1.00" vaporized=""/>
    <tripinfo id="0.4" depart="10.00" departLane="510_0" departPos="5.10" departSpeed="16.29" departDelay="0.00" arrival="133.00" arrivalLane="4950_1" arrivalPos="7.95" arrivalSpeed="15.66" duration="123.00" routeLength="1494.89" waitingTime="0.00" waitingCount="0" stopTime="0.00" timeLoss="33.65" rerouteNo="0" devices="tripinfo_0.4" vType="DEFAULT_VEHTYPE" speedFactor="1.20" vaporized=""/>
    <tripinfo id="0.5" depart="12.00" departLane="510_0" departPos="5.10" departSpeed="14.76" departDelay="0.00" arrival="135.00" arrivalLane="4950_1" arrivalPos="7.95" arrivalSpeed="13.99" duration="123.00" routeLength="1494.89" waitingTime="0.00" waitingCount="0" stopTime="0.00" timeLoss="21.60" rerouteNo="0" devices="tripinfo_0.5" vType="DEFAULT_VEHTYPE" speedFactor="1.06" vaporized=""/>
    <tripinfo id="0.6" depart="13.00" departLane="510_0" departPos="5.10" departSpeed="12.22" departDelay="0.00" arrival="137.00" arrivalLane="4950_1" arrivalPos="7.95" arrivalSpeed="13.51" duration="124.00" routeLength="1494.89" waitingTime="0.00" waitingCount="0" stopTime="0.00" timeLoss="20.32" rerouteNo="0" devices="tripinfo_0.6" vType="DEFAULT_VEHTYPE" speedFactor="1.04" vaporized=""/>
    <tripinfo id="0.7" depart="15.00" departLane="510_0" departPos="5.10" departSpeed="12.05" departDelay="0.00" arrival="147.00" arrivalLane="4950_1" arrivalPos="7.95" arrivalSpeed="11.60" duration="132.00" routeLength="1494.89" waitingTime="0.00" waitingCount="0" stopTime="0.00" timeLoss="7.21" rerouteNo="0" devices="tripinfo_0.7" vType="DEFAULT_VEHTYPE" speedFactor="0.87" vaporized=""/>
    <tripinfo id="0.8" depart="16.00" departLane="510_0" departPos="5.10" departSpeed="9.32" departDelay="0.00" arrival="159.00" arrivalLane="4950_1" arrivalPos="7.95" arrivalSpeed="11.01" duration="143.00" routeLength="1494.89" waitingTime="0.00" waitingCount="0" stopTime="0.00" timeLoss="8.96" rerouteNo="0" devices="tripinfo_0.8" vType="DEFAULT_VEHTYPE" speedFactor="0.81" vaporized=""/>
    <tripinfo id="0.9" depart="18.00" departLane="510_0" departPos="5.10" departSpeed="9.18" departDelay="0.00" arrival="160.00" arrivalLane="4950_1" arrivalPos="7.95" arrivalSpeed="12.52" duration="142.00" routeLength="1494.89" waitingTime="0.00" waitingCount="0" stopTime="0.00" timeLoss="49.58" rerouteNo="0" devices="tripinfo_0.9" vType="DEFAULT_VEHTYPE" speedFactor="1.17" vaporized=""/>
    <tripinfo id="0.10" depart="20.00" departLane="510_0" departPos="5.10" departSpeed="9.72" departDelay="0.00" arrival="162.00" arrivalLane="4950_1" arrivalPos="7.95" arrivalSpeed="12.14" duration="142.00" routeLength="1494.89" waitingTime="0.00" waitingCount="0" stopTime="0.00" timeLoss="21.83" rerouteNo="0" devices="tripinfo_0.10" vType="DEFAULT_VEHTYPE" speedFactor="0.90" vaporized=""/>
    <tripinfo id="0.11" depart="22.00" departLane="510_0" departPos="5.10" departSpeed="10.42" departDelay="0.00" arrival="164.00" arrivalLane="4950_1" arrivalPos="7.95" arrivalSpeed="14.40" duration="142.00" routeLength="1494.89" waitingTime="0.00" waitingCount="0" stopTime="0.00" timeLoss="43.46" rerouteNo="0" devices="tripinfo_0.11" vType="DEFAULT_VEHTYPE" speedFactor="1.10" vaporized=""/>
    <tripinfo id="0.12" depart="27.00" departLane="510_0" departPos="5.10" departSpeed="15.94" departDelay="0.00" arrival="165.00" arrivalLane="4950_1" arrivalPos="7.95" arrivalSpeed="15.85" duration="138.00" routeLength="1494.89" waitingTime="0.00" waitingCount="0" stopTime="0.00" timeLoss="44.02" rerouteNo="0" devices="tripinfo_0.12" vType="DEFAULT_VEHTYPE" speedFactor="1.15" vaporized=""/>
    <tripinfo id="0.13" depart="29.00" departLane="510_0" departPos="5.10" departSpeed="13.98" departDelay="0.00" arrival="167.00" arrivalLane="4950_1" arrivalPos="7.95" arrivalSpeed="13.32" duration="138.00" routeLength="1494.89" waitingTime="0.00" waitingCount="0" stopTime="0.00" timeLoss="30.69" rerouteNo="0" devices="tripinfo_0.13" vType="DEFAULT_VEHTYPE" speedFactor="1.01" vaporized=""/>
    <tripinfo id="0.14" depart="30.00" departLane="510_0" departPos="5.10" departSpeed="11.42" departDelay="0.00" arrival="169.00" arrivalLane="4950_1" arrivalPos="7.95" arrivalSpeed="13.85" duration="139.00" routeLength="1494.89" waitingTime="0.00" waitingCount="0" stopTime="0.00" timeLoss="38.99" rerouteNo="0" devices="tripinfo_0.14" vType="DEFAULT_VEHTYPE" speedFactor="1.08" vaporized=""/>
    <tripinfo id="0.15" depart="31.00" departLane="510_0" departPos="5.10" departSpeed="7.64" departDelay="0.00" arrival="170.00" arrivalLane="4950_1" arrivalPos="7.95" arrivalSpeed="15.57" duration="139.00" routeLength="1494.89" waitingTime="0.00" waitingCount="0" stopTime="0.00" timeLoss="43.67" rerouteNo="0" devices="tripinfo_0.15" vType="DEFAULT_VEHTYPE" speedFactor="1.13" vaporized=""/>
    <tripinfo id="0.16" depart="33.00" departLane="510_0" departPos="5.10" departSpeed="8.23" departDelay="0.00" arrival="172.00" arrivalLane="4950_1" arrivalPos="7.95" arrivalSpeed="15.40" duration="139.00" routeLength="1494.89" waitingTime="0.00" waitingCount="0" stopTime="0.00" timeLoss="42.17" rerouteNo="0" devices="tripinfo_0.16" vType="DEFAULT_VEHTYPE" speedFactor="1.12" vaporized=""/>
    <tripinfo id="0.17" depart="35.00" departLane="510_0" departPos="5.10" departSpeed="9.54" departDelay="0.00" arrival="174.00" arrivalLane="4950_1" arrivalPos="7.95" arrivalSpeed="13.03" duration="139.00" routeLength="1494.89" waitingTime="0.00" waitingCount="0" stopTime="0.00" timeLoss="26.00" rerouteNo="0" devices="tripinfo_0.17" vType="DEFAULT_VEHTYPE" speedFactor="0.95" vaporized=""/>
    <tripinfo id="0.18" depart="37.00" departLane="510_0" departPos="5.10" departSpeed="10.47" departDelay="0.00" arrival="176.00" arrivalLane="4950_1" arrivalPos="7.95" arrivalSpeed="13.83" duration="139.00" routeLength="1494.89" waitingTime="0.00" waitingCount="0" stopTime="0.00" timeLoss="30.96" rerouteNo="0" devices="tripinfo_0.18" vType="DEFAULT_VEHTYPE" speedFactor="1.00" vaporized=""/>
    <tripinfo id="0.19" depart="38.00" departLane="510_0" departPos="5.10" departSpeed="6.82" departDelay="0.00" arrival="178.00" arrivalLane="4950_1" arrivalPos="7.95" arrivalSpeed="13.86" duration="140.00" routeLength="1494.89" waitingTime="0.00" waitingCount="0" stopTime="0.00" timeLoss="31.73" rerouteNo="0" devices="tripinfo_0.19" vType="DEFAULT_VEHTYPE" speedFactor="1.00" vaporized=""/>
    <tripinfo id="0.20" depart="40.00" departLane="510_0" departPos="5.10" departSpeed="7.61" departDelay="1.00" arrival="180.00" arrivalLane="4950_1" arrivalPos="7.95" arrivalSpeed="12.35" duration="140.00" routeLength="1494.89" waitingTime="0.00" waitingCount="0" stopTime="0.00" timeLoss="21.65" rerouteNo="0" devices="tripinfo_0.20" vType="DEFAULT_VEHTYPE" speedFactor="0.91" vaporized=""/>
    <tripinfo id="0.21" depart="42.00" departLane="510_0" departPos="5.10" departSpeed="8.13" departDelay="2.00" arrival="182.00" arrivalLane="4950_1" arrivalPos="7.95" arrivalSpeed="11.97" duration="140.00" routeLength="1494.89" waitingTime="0.00" waitingCount="0" stopTime="0.00" timeLoss="15.70" rerouteNo="0" devices="tripinfo_0.21" vType="DEFAULT_VEHTYPE" speedFactor="0.87" vaporized=""/>
    <tripinfo id="0.22" depart="43.00" departLane="510_0" departPos="5.10" departSpeed="3.76" departDelay="1.00" arrival="184.00" arrivalLane="4950_1" arrivalPos="7.95" arrivalSpeed="15.65" duration="141.00" routeLength="1494.89" waitingTime="0.00" waitingCount="0" stopTime="0.00" timeLoss="46.78" rerouteNo="0" devices="tripinfo_0.22" vType="DEFAULT_VEHTYPE" speedFactor="1.15" vaporized=""/>
    <tripinfo id="0.23" depart="45.00" departLane="510_0" departPos="5.10" departSpeed="3.33" departDelay="2.00" arrival="186.00" arrivalLane="4950_1" arrivalPos="7.95" arrivalSpeed="12.05" duration="141.00" routeLength="1494.89" waitingTime="0.00" waitingCount="0" stopTime="0.00" timeLoss="22.24" rerouteNo="0" devices="tripinfo_0.23" vType="DEFAULT_VEHTYPE" speedFactor="0.91" vaporized=""/>
    <tripinfo id="0.24" depart="47.00" departLane="510_0" departPos="5.10" departSpeed="1.71" departDelay="3.00" arrival="187.00" arrivalLane="4950_1" arrivalPos="7.95" arrivalSpeed="12.89" duration="140.00" routeLength="1494.89" waitingTime="0.00" waitingCount="0" stopTime="0.00" timeLoss="26.37" rerouteNo="0" devices="tripinfo_0.24" vType="DEFAULT_VEHTYPE" speedFactor="0.95" vaporized=""/>
    <tripinfo id="0.25" depart="50.00" departLane="510_0" departPos="5.10" departSpeed="5.12" departDelay="4.00" arrival="189.00" arrivalLane="4950_1" arrivalPos="7.95" arrivalSpeed="15.20" duration="139.00" routeLength="1494.89" waitingTime="0.00" waitingCount="0" stopTime="0.00" timeLoss="45.93" rerouteNo="0" devices="tripinfo_0.25" vType="DEFAULT_VEHTYPE" speedFactor="1.16" vaporized=""/>
    <tripinfo id="0.26" depart="52.00" departLane="510_0" departPos="5.10" departSpeed="4.61" departDelay="4.00" arrival="191.00" arrivalLane="4950_1" arrivalPos="7.95" arrivalSpeed="13.39" duration="139.00" routeLength="1494.89" waitingTime="0.00" waitingCount="0" stopTime="0.00" timeLoss="33.72" rerouteNo="0" devices="tripinfo_0.26" vType="DEFAULT_VEHTYPE" speedFactor="1.03" vaporized=""/>
    <tripinfo id="0.27" depart="55.00" departLane="510_0" departPos="5.10" departSpeed="8.34" departDelay="0.00" arrival="192.00" arrivalLane="4950_1" arrivalPos="7.95" arrivalSpeed="15.35" duration="137.00" routeLength="1494.89" waitingTime="0.00" waitingCount="0" stopTime="0.00" timeLoss="44.61" rerouteNo="0" devices="tripinfo_0.27" vType="DEFAULT_VEHTYPE" speedFactor="1.17" vaporized=""/>
    <tripinfo id="0.28" depart="57.00" departLane="510_0" departPos="5.10" departSpeed="9.61" departDelay="1.00" arrival="194.00" arrivalLane="4950_1" arrivalPos="7.95" arrivalSpeed="15.77" duration="137.00" routeLength="1494.89" waitingTime="0.00" waitingCount="0" stopTime="0.00" timeLoss="47.65" rerouteNo="0" devices="tripinfo_0.28" vType="DEFAULT_VEHTYPE" speedFactor="1.21" vaporized=""/>
    <tripinfo id="0.29" depart="58.00" departLane="510_0" departPos="5.10" departSpeed="6.11" departDelay="0.00" arrival="196.00" arrivalLane="4950_1" arrivalPos="7.95" arrivalSpeed="13.60" duration="138.00" routeLength="1494.89" waitingTime="0.00" waitingCount="0" stopTime="0.00" timeLoss="31.21" rerouteNo="0" devices="tripinfo_0.29" vType="DEFAULT_VEHTYPE" speedFactor="1.01" vaporized=""/>
    <tripinfo id="0.30" depart="60.00" departLane="510_0" departPos="5.10" departSpeed="7.11" departDelay="0.00" arrival="198.00" arrivalLane="4950_1" arrivalPos="7.95" arrivalSpeed="15.03" duration="138.00" routeLength="1494.89" waitingTime="0.00" waitingCount="0" stopTime="0.00" timeLoss="43.55" rerouteNo="0" devices="tripinfo_0.30" vType="DEFAULT_VEHTYPE" speedFactor="1.15" vaporized=""/>
    <tripinfo id="0.31" depart="62.00" departLane="510_0" departPos="5.10" departSpeed="7.13" departDelay="0.00" arrival="199.00" arrivalLane="4950_1" arrivalPos="7.95" arrivalSpeed="15.21" duration="137.00" routeLength="1494.89" waitingTime="0.00" waitingCount="0" stopTime="0.00" timeLoss="41.85" rerouteNo="0" devices="tripinfo_0.31" vType="DEFAULT_VEHTYPE" speedFactor="1.13" vaporized=""/>
    <tripinfo id="0.32" depart="64.00" departLane="510_0" departPos="5.10" departSpeed="7.85" departDelay="1.00" arrival="201.00" arrivalLane="4950_1" arrivalPos="7.95" arrivalSpeed="14.10" duration="137.00" routeLength="1494.89" waitingTime="0.00" waitingCount="0" stopTime="0.00" timeLoss="34.64" rerouteNo="0" devices="tripinfo_0.32" vType="DEFAULT_VEHTYPE" speedFactor="1.05" vaporized=""/>
    <tripinfo id="0.33" depart="65.00" departLane="510_0" departPos="5.10" departSpeed="3.10" departDelay="1.00" arrival="203.00" arrivalLane="4950_1" arrivalPos="7.95" arrivalSpeed="13.17" duration="138.00" routeLength="1494.89" waitingTime="0.00" waitingCount="0" stopTime="0.00" timeLoss="32.97" rerouteNo="0" devices="tripinfo_0.33" vType="DEFAULT_VEHTYPE" speedFactor="1.03" vaporized=""/>
    <tripinfo id="0.34" depart="68.00" departLane="510_0" departPos="5.10" departSpeed="6.19" departDelay="1.00" arrival="205.00" arrivalLane="4950_1" arrivalPos="7.95" arrivalSpeed="13.34" duration="137.00" routeLength="1494.89" waitingTime="0.00" waitingCount="0" stopTime="0.00" timeLoss="29.66" rerouteNo="0" devices="tripinfo_0.34" vType="DEFAULT_VEHTYPE" speedFactor="1.01" vaporized=""/>
    <tripinfo id="0.35" depart="70.00" departLane="510_0" departPos="5.10" departSpeed="5.92" departDelay="2.00" arrival="207.00" arrivalLane="4950_1" arrivalPos="7.95" arrivalSpeed="11.65" duration="137.00" routeLength="1494.89" waitingTime="0.00" waitingCount="0" stopTime="0.00" timeLoss="19.83" rerouteNo="0" devices="tripinfo_0.35" vType="DEFAULT_VEHTYPE" speedFactor="0.92" vaporized=""/>
    <tripinfo id="0.36" depart="72.00" departLane="510_0" departPos="5.10" departSpeed="5.72" departDelay="2.00" arrival="209.00" arrivalLane="4950_1" arrivalPos="7.95" arrivalSpeed="12.04" duration="137.00" routeLength="1494.89" waitingTime="0.00" waitingCount="0" stopTime="0.00" timeLoss="23.07" rerouteNo="0" devices="tripinfo_0.36" vType="DEFAULT_VEHTYPE" speedFactor="0.95" vaporized=""/>
    <tripinfo id="0.37" depart="74.00" departLane="510_0" departPos="5.10" departSpeed="5.92" departDelay="3.00" arrival="211.00" arrivalLane="4950_1" arrivalPos="7.95" arrivalSpeed="14.38" duration="137.00" routeLength="1494.89" waitingTime="0.00" waitingCount="0" stopTime="0.00" timeLoss="34.11" rerouteNo="0" devices="tripinfo_0.37" vType="DEFAULT_VEHTYPE" speedFactor="1.06" vaporized=""/>
    <tripinfo id="0.38" depart="76.00" departLane="510_0" departPos="5.10" departSpeed="4.97" departDelay="4.00" arrival="212.00" arrivalLane="4950_1" arrivalPos="7.95" arrivalSpeed="14.49" duration="136.00" routeLength="1494.89" waitingTime="0.00" waitingCount="0" stopTime="0.00" timeLoss="34.20" rerouteNo="0" devices="tripinfo_0.38" vType="DEFAULT_VEHTYPE" speedFactor="1.06" vaporized=""/>
    <tripinfo id="0.39" depart="78.00" departLane="510_0" departPos="5.10" departSpeed="5.21" departDelay="4.00" arrival="214.00" arrivalLane="4950_1" arrivalPos="7.95" arrivalSpeed="15.74" duration="136.00" routeLength="1494.89" waitingTime="0.00" waitingCount="0" stopTime="0.00" timeLoss="41.59" rerouteNo="0" devices="tripinfo_0.39" vType="DEFAULT_VEHTYPE" speedFactor="1.15" vaporized=""/>
    <tripinfo id="0.40" depart="80.00" departLane="510_0" departPos="5.10" departSpeed="4.51" departDelay="5.00" arrival="216.00" arrivalLane="4950_1" arrivalPos="7.95" arrivalSpeed="13.13" duration="136.00" routeLength="1494.89" waitingTime="0.00" waitingCount="0" stopTime="0.00" timeLoss="29.70" rerouteNo="0" devices="tripinfo_0.40" vType="DEFAULT_VEHTYPE" speedFactor="1.02" vaporized=""/>
    <tripinfo id="0.41" depart="82.00" departLane="510_0" departPos="5.10" departSpeed="2.12" departDelay="6.00" arrival="218.00" arrivalLane="4950_1" arrivalPos="7.95" arrivalSpeed="11.92" duration="136.00" routeLength="1494.89" waitingTime="0.00" waitingCount="0" stopTime="0.00" timeLoss="22.13" rerouteNo="0" devices="tripinfo_0.41" vType="DEFAULT_VEHTYPE" speedFactor="0.95" vaporized=""/>
    <tripinfo id="0.42" depart="85.00" departLane="510_0" departPos="5.10" departSpeed="5.28" departDelay="8.00" arrival="220.00" arrivalLane="4950_1" arrivalPos="7.95" arrivalSpeed="11.82" duration="135.00" routeLength="1494.89" waitingTime="0.00" waitingCount="0" stopTime="0.00" timeLoss="15.15" rerouteNo="0" devices="tripinfo_0.42" vType="DEFAULT_VEHTYPE" speedFactor="0.90" vaporized=""/>
    <tripinfo id="0.43" depart="87.00" departLane="510_0" departPos="5.10" departSpeed="4.95" departDelay="8.00" arrival="222.00" arrivalLane="4950_1" arrivalPos="7.95" arrivalSpeed="12.18" duration="135.00" routeLength="1494.89" waitingTime="0.00" waitingCount="0" stopTime="0.00" timeLoss="21.52" rerouteNo="0" devices="tripinfo_0.43" vType="DEFAULT_VEHTYPE" speedFactor="0.95" vaporized=""/>
    <tripinfo id="0.44" depart="89.00" departLane="510_0" departPos="5.10" departSpeed="2.50" departDelay="9.00" arrival="224.00" arrivalLane="4950_1" arrivalPos="7.95" arrivalSpeed="15.12" duration="135.00" routeLength="1494.89" waitingTime="0.00" waitingCount="0" stopTime="0.00" timeLoss="36.29" rerouteNo="0" devices="tripinfo_0.44" vType="DEFAULT_VEHTYPE" speedFactor="1.10" vaporized=""/>
    <tripinfo id="0.45" depart="92.00" departLane="510_0" departPos="5.10" departSpeed="5.61" departDelay="11.00" arrival="225.00" arrivalLane="4950_1" arrivalPos="7.95" arrivalSpeed="12.41" duration="133.00" routeLength="1494.89" waitingTime="0.00" waitingCount="0" stopTime="0.00" timeLoss="23.81" rerouteNo="0" devices="tripinfo_0.45" vType="DEFAULT_VEHTYPE" speedFactor="0.99" vaporized=""/>
    <tripinfo id="0.46" depart="94.00" departLane="510_0" departPos="5.10" departSpeed="6.19" departDelay="11.00" arrival="227.00" arrivalLane="4950_1" arrivalPos="7.95" arrivalSpeed="13.73" duration="133.00" routeLength="1494.89" waitingTime="0.00" waitingCount="0" stopTime="0.00" timeLoss="31.93" rerouteNo="0" devices="tripinfo_0.46" vType="DEFAULT_VEHTYPE" speedFactor="1.07" vaporized=""/>
    <tripinfo id="0.47" depart="96.00" departLane="510_0" departPos="5.10" departSpeed="5.52" departDelay="11.00" arrival="230.00" arrivalLane="4950_1" arrivalPos="7.95" arrivalSpeed="11.99" duration="134.00" routeLength="1494.89" waitingTime="0.00" waitingCount="0" stopTime="0.00" timeLoss="15.79" rerouteNo="0" devices="tripinfo_0.47" vType="DEFAULT_VEHTYPE" speedFactor="0.92" vaporized=""/>
    <tripinfo id="0.48" depart="98.00" departLane="510_0" departPos="5.10" departSpeed="6.17" departDelay="9.00" arrival="231.00" arrivalLane="4950_1" arrivalPos="7.95" arrivalSpeed="12.51" duration="133.00" routeLength="1494.89" waitingTime="0.00" waitingCount="0" stopTime="0.00" timeLoss="21.47" rerouteNo="0" devices="tripinfo_0.48" vType="DEFAULT_VEHTYPE" speedFactor="0.97" vaporized=""/>
    <tripinfo id="0.49" depart="100.00" departLane="510_0" departPos="5.10" departSpeed="6.24" departDelay="10.00" arrival="233.00" arrivalLane="4950_1" arrivalPos="7.95" arrivalSpeed="14.55" duration="133.00" routeLength="1494.89" waitingTime="0.00" waitingCount="0" stopTime="0.00" timeLoss="31.48" rerouteNo="0" devices="tripinfo_0.49" vType="DEFAULT_VEHTYPE" speedFactor="1.07" vaporized=""/>
    <tripinfo id="0.50" depart="102.00" departLane="510_0" departPos="5.10" departSpeed="6.41" departDelay="10.00" arrival="235.00" arrivalLane="4950_1" arrivalPos="7.95" arrivalSpeed="13.32" duration="133.00" routeLength="1494.89" waitingTime="0.00" waitingCount="0" stopTime="0.00" timeLoss="25.30" rerouteNo="0" devices="tripinfo_0.50" vType="DEFAULT_VEHTYPE" speedFactor="1.01" vaporized=""/>
    <tripinfo id="0.51" depart="104.00" departLane="510_0" departPos="5.10" departSpeed="7.69" departDelay="11.00" arrival="236.00" arrivalLane="4950_1" arrivalPos="7.95" arrivalSpeed="13.86" duration="132.00" routeLength="1494.89" waitingTime="0.00" waitingCount="0" stopTime="0.00" timeLoss="30.82" rerouteNo="0" devices="tripinfo_0.51" vType="DEFAULT_VEHTYPE" speedFactor="1.06" vaporized=""/>
    <tripinfo id="0.52" depart="106.00" departLane="510_0" departPos="5.10" departSpeed="9.17" departDelay="12.00" arrival="238.00" arrivalLane="4950_1" arrivalPos="7.95" arrivalSpeed="16.42" duration="132.00" routeLength="1494.89" waitingTime="0.00" waitingCount="0" stopTime="0.00" timeLoss="45.76" rerouteNo="0" devices="tripinfo_0.52" vType="DEFAULT_VEHTYPE" speedFactor="1.26" vaporized=""/>
    <tripinfo id="0.53" depart="107.00" departLane="510_0" departPos="5.10" departSpeed="4.58" departDelay="9.00" arrival="240.00" arrivalLane="4950_1" arrivalPos="7.95" arrivalSpeed="12.09" duration="133.00" routeLength="1494.89" waitingTime="0.00" waitingCount="0" stopTime="0.00" timeLoss="15.01" rerouteNo="0" devices="tripinfo_0.53" vType="DEFAULT_VEHTYPE" speedFactor="0.91" vaporized=""/>
    <tripinfo id="0.54" depart="109.00" departLane="510_0" departPos="5.10" departSpeed="2.92" departDelay="10.00" arrival="242.00" arrivalLane="4950_1" arrivalPos="7.95" arrivalSpeed="11.93" duration="133.00" routeLength="1494.89" waitingTime="0.00" waitingCount="0" stopTime="0.00" timeLoss="13.70" rerouteNo="0" devices="tripinfo_0.54" vType="DEFAULT_VEHTYPE" speedFactor="0.90" vaporized=""/>
    <tripinfo id="0.55" depart="112.00" departLane="510_0" departPos="5.10" departSpeed="6.18" departDelay="11.00" arrival="244.00" arrivalLane="4950_1" arrivalPos="7.95" arrivalSpeed="11.79" duration="132.00" routeLength="1494.89" waitingTime="0.00" waitingCount="0" stopTime="0.00" timeLoss="16.68" rerouteNo="0" devices="tripinfo_0.55" vType="DEFAULT_VEHTYPE" speedFactor="0.94" vaporized=""/>
    <tripinfo id="0.56" depart="114.00" departLane="510_0" departPos="5.10" departSpeed="7.25" departDelay="9.00" arrival="246.00" arrivalLane="4950_1" arrivalPos="7.95" arrivalSpeed="14.42" duration="132.00" routeLength="1494.89" waitingTime="0.00" waitingCount="0" stopTime="0.00" timeLoss="34.15" rerouteNo="0" devices="tripinfo_0.56" vType="DEFAULT_VEHTYPE" speedFactor="1.10" vaporized=""/>
    <tripinfo id="0.57" depart="116.00" departLane="510_0" departPos="5.10" departSpeed="7.25" departDelay="10.00" arrival="248.00" arrivalLane="4950_1" arrivalPos="7.95" arrivalSpeed="13.76" duration="132.00" routeLength="1494.89" waitingTime="0.00" waitingCount="0" stopTime="0.00" timeLoss="27.06" rerouteNo="0" devices="tripinfo_0.57" vType="DEFAULT_VEHTYPE" speedFactor="1.03" vaporized=""/>
    <tripinfo id="0.58" depart="118.00" departLane="510_0" departPos="5.10" departSpeed="8.35" departDelay="11.00" arrival="250.00" arrivalLane="4950_1" arrivalPos="7.95" arrivalSpeed="15.14" duration="132.00" routeLength="1494.89" waitingTime="0.00" waitingCount="0" stopTime="0.00" timeLoss="35.46" rerouteNo="0" devices="tripinfo_0.58" vType="DEFAULT_VEHTYPE" speedFactor="1.12" vaporized=""/>
    <tripinfo id="0.59" depart="119.00" departLane="510_0" departPos="5.10" departSpeed="3.87" departDelay="10.00" arrival="251.00" arrivalLane="4950_1" arrivalPos="7.95" arrivalSpeed="16.12" duration="132.00" routeLength="1494.89" waitingTime="0.00" waitingCount="0" stopTime="0.00" timeLoss="41.81" rerouteNo="0" devices="tripinfo_0.59" vType="DEFAULT_VEHTYPE" speedFactor="1.19" vaporized=""/>
    <tripinfo id="0.60" depart="121.00" departLane="510_0" departPos="5.10" departSpeed="2.66" departDelay="11.00" arrival="254.00" arrivalLane="4950_1" arrivalPos="7.95" arrivalSpeed="12.51" duration="133.00" routeLength="1494.89" waitingTime="0.00" waitingCount="0" stopTime="0.00" timeLoss="15.71" rerouteNo="0" devices="tripinfo_0.60" vType="DEFAULT_VEHTYPE" speedFactor="0.92" vaporized=""/>
    <tripinfo id="0.61" depart="124.00" departLane="510_0" departPos="5.10" departSpeed="6.63" departDelay="11.00" arrival="255.00" arrivalLane="4950_1" arrivalPos="7.95" arrivalSpeed="13.55" duration="131.00" routeLength="1494.89" waitingTime="0.00" waitingCount="0" stopTime="0.00" timeLoss="25.45" rerouteNo="0" devices="tripinfo_0.61" vType="DEFAULT_VEHTYPE" speedFactor="1.02" vaporized=""/>
    <tripinfo id="0.62" depart="126.00" departLane="510_0" departPos="5.10" departSpeed="7.58" departDelay="11.00" arrival="257.00" arrivalLane="4950_1" arrivalPos="7.95" arrivalSpeed="15.24" duration="131.00" routeLength="1494.89" waitingTime="0.00" waitingCount="0" stopTime="0.00" timeLoss="35.13" rerouteNo="0" devices="tripinfo_0.62" vType="DEFAULT_VEHTYPE" speedFactor="1.13" vaporized=""/>
    <tripinfo id="0.63" depart="128.00" departLane="510_0" departPos="5.10" departSpeed="7.90" departDelay="11.00" arrival="259.00" arrivalLane="4950_1" arrivalPos="7.95" arrivalSpeed="14.72" duration="131.00" routeLength="1494.89" waitingTime="0.00" waitingCount="0" stopTime="0.00" timeLoss="33.66" rerouteNo="0" devices="tripinfo_0.63" vType="DEFAULT_VEHTYPE" speedFactor="1.12" vaporized=""/>
    <tripinfo id="0.64" depart="130.00" departLane="510_0" departPos="5.10" departSpeed="8.58" departDelay="11.00" arrival="261.00" arrivalLane="4950_1" arrivalPos="7.95" arrivalSpeed="13.86" duration="131.00" routeLength="1494.89" waitingTime="0.00" waitingCount="0" stopTime="0.00" timeLoss="29.00" rerouteNo="0" devices="tripinfo_0.64" vType="DEFAULT_VEHTYPE" speedFactor="1.06" vaporized=""/>
    <tripinfo id="0.65" depart="131.00" departLane="510_0" departPos="5.10" departSpeed="3.61" departDelay="11.00" arrival="265.00" arrivalLane="4950_1" arrivalPos="7.95" arrivalSpeed="11.76" duration="134.00" routeLength="1494.89" waitingTime="0.00" waitingCount="0" stopTime="0.00" timeLoss="9.40" rerouteNo="0" devices="tripinfo_0.65" vType="DEFAULT_VEHTYPE" speedFactor="0.87" vaporized=""/>
    <tripinfo id="0.66" depart="134.00" departLane="510_0" departPos="5.10" departSpeed="6.62" departDelay="13.00" arrival="266.00" arrivalLane="4950_1" arrivalPos="7.95" arrivalSpeed="13.01" duration="132.00" routeLength="1494.89" waitingTime="0.00" waitingCount="0" stopTime="0.00" timeLoss="29.11" rerouteNo="0" devices="tripinfo_0.66" vType="DEFAULT_VEHTYPE" speedFactor="1.05" vaporized=""/>
    <tripinfo id="0.67" depart="136.00" departLane="510_0" departPos="5.10" departSpeed="6.99" departDelay="14.00" arrival="268.00" arrivalLane="4950_1" arrivalPos="7.95" arrivalSpeed="12.86" duration="132.00" routeLength="1494.89" waitingTime="0.00" waitingCount="0" stopTime="0.00" timeLoss="25.94" rerouteNo="0" devices="tripinfo_0.67" vType="DEFAULT_VEHTYPE" speedFactor="1.02" vaporized=""/>
    <tripinfo id="0.68" depart="138.00" departLane="510_0" departPos="5.10" departSpeed="6.82" departDelay="12.00" arrival="272.00" arrivalLane="4950_1" arrivalPos="7.95" arrivalSpeed="13.75" duration="134.00" routeLength="1494.89" waitingTime="0.00" waitingCount="0" stopTime="0.00" timeLoss="26.99" rerouteNo="0" devices="tripinfo_0.68" vType="DEFAULT_VEHTYPE" speedFactor="1.01" vaporized=""/>
    <tripinfo id="0.69" depart="140.00" departLane="510_0" departPos="5.10" departSpeed="8.36" departDelay="12.00" arrival="274.00" arrivalLane="4950_1" arrivalPos="7.95" arrivalSpeed="15.11" duration="134.00" routeLength="1494.89" waitingTime="0.00" waitingCount="0" stopTime="0.00" timeLoss="36.39" rerouteNo="0" devices="tripinfo_0.69" vType="DEFAULT_VEHTYPE" speedFactor="1.11" vaporized=""/>
    <tripinfo id="0.70" depart="141.00" departLane="510_0" departPos="5.10" departSpeed="4.43" departDelay="11.00" arrival="276.00" arrivalLane="4950_1" arrivalPos="7.95" arrivalSpeed="13.46" duration="135.00" routeLength="1494.89" waitingTime="0.00" waitingCount="0" stopTime="0.00" timeLoss="27.73" rerouteNo="0" devices="tripinfo_0.70" vType="DEFAULT_VEHTYPE" speedFactor="1.01" vaporized=""/>
    <tripinfo id="0.71" depart="143.00" departLane="510_0" departPos="5.10" departSpeed="2.80" departDelay="11.00" arrival="278.00" arrivalLane="4950_1" arrivalPos="7.95" arrivalSpeed="12.80" duration="135.00" routeLength="1494.89" waitingTime="0.00" waitingCount="0" stopTime="0.00" timeLoss="24.25" rerouteNo="0" devices="tripinfo_0.71" vType="DEFAULT_VEHTYPE" speedFactor="0.98" vaporized=""/>
    <tripinfo id="0.72" depart="146.00" departLane="510_0" departPos="5.10" departSpeed="5.38" departDelay="13.00" arrival="280.00" arrivalLane="4950_1" arrivalPos="7.95" arrivalSpeed="11.49" duration="134.00" routeLength="1494.89" waitingTime="0.00" waitingCount="0" stopTime="0.00" timeLoss="16.42" rerouteNo="0" devices="tripinfo_0.72" vType="DEFAULT_VEHTYPE" speedFactor="0.92" vaporized=""/>
    <tripinfo id="0.73" depart="148.00" departLane="510_0" departPos="5.10" departSpeed="5.71" departDelay="11.00" arrival="281.00" arrivalLane="4950_1" arrivalPos="7.95" arrivalSpeed="13.78" duration="133.00" routeLength="1494.89" waitingTime="0.00" waitingCount="0" stopTime="0.00" timeLoss="30.52" rerouteNo="0" devices="tripinfo_0.73" vType="DEFAULT_VEHTYPE" speedFactor="1.05" vaporized=""/>